14
	Energy:      35.5249651
C         -2.91271        0.52150        0.11740
C         -3.78382       -0.54456        0.02156
C         -3.00945       -1.68532       -0.02640
C         -1.69435       -1.26904        0.04221
C         -0.52961       -2.17936        0.02142
C          0.73613       -1.75428        0.08895
N         -1.64268        0.07674        0.12967
H         -0.71210       -3.24759       -0.05248
H          0.98911       -0.70337        0.16399
H          1.54670       -2.47561        0.06889
H         -0.79395        0.67995        0.19529
H         -3.19283        1.56508        0.17498
H         -4.86398       -0.49535       -0.00987
H         -3.36667       -2.70401       -0.10279
