34
	Energy:     102.3983205
C         -1.70120       -0.38738        0.44733
C         -0.79309       -1.02765       -0.26906
C         -1.21168        0.30636       -0.77238
C         -0.48414        1.64141       -0.66007
H         -1.87481        0.29549       -1.63280
C         -1.33952        2.65898        0.04426
C         -2.60722        3.22511       -0.26848
C         -2.51433        3.99862        0.86500
C         -1.23465        3.42523        1.17220
H         -3.31328        3.08406       -1.08034
H         -3.13927        4.74910        1.33814
H         -0.49990        3.55987        1.95955
C          0.88653        1.50652       -0.04296
H         -0.34737        2.00202       -1.68261
C          2.07083        1.76930       -0.67425
C          2.78426        1.58520        0.16934
C          2.59425        1.11508        1.16842
N          1.22749        1.09713        1.20085
H          0.61843        0.78305        1.94456
C          4.15887        2.20896        0.02215
C          4.32939        3.45110       -0.62795
C          5.59469        4.02055       -0.75604
C          6.71359        3.37056       -0.24738
C          6.56840        2.14511        0.39338
C          5.30844        1.56566        0.53049
H          5.23529        0.60121        1.02730
H          3.47654        3.99546       -1.02657
H          5.70723        4.98035       -1.25434
H          7.69872        3.81916       -0.35028
H          7.44363        1.63508        0.78835
H          2.11866        2.08792       -1.71152
H          3.13763        0.78936        2.04808
H         -0.12959       -1.87652       -0.35687
H         -2.31108       -0.36118        1.33948
